     292
 i =        1, E =     -1391.5963623507
  Y       -10.4168998053       -0.2494591286       -0.3957340728
  N       -13.3641631296       -1.8958477461        1.3637287241
  O        -7.7391193348        2.5993412297       -8.9954329166
  O       -12.5141599273        2.6033272008        8.3498591389
  N        -8.7132391219       -2.0568325773        2.4611714486
  N        -8.5590140507       -1.7966423934        0.0416540820
  N        -8.5526178506        0.9074157150       -1.4285916545
  C       -11.5763679837        1.6328736778        4.3797823546
  N        -7.6541964942       -2.1189525241       -2.2026872692
  C       -13.4494102558       -1.7741060718        0.0392731312
  N       -12.4288504737       -1.5920895002       -0.8660174617
  N       -12.3023767602       -1.8273788090       -3.2868400842
  N       -10.9384567977       -1.7000417547        1.5288675689
  N       -11.3577832301        1.0725787242       -2.1952354539
  C        -7.8904161231        3.1817077552       -6.6172840135
  H        -7.3798452581        4.1292281655       -6.7457488187
  N       -10.0502853931       -1.7022641445       -2.3545040418
  C       -10.7663227145       -2.2667779387        3.7829970404
  C        -8.9904179023        1.5909391331       -5.1239449386
  C        -6.3342042890       -2.4490086500       -0.1701628182
  C       -14.9777813386        2.0468695744       -1.6710763386
  C       -12.1326188123       -2.2713619303        3.4428848210
  C       -13.0013985573        1.6213756882       -3.7358363974
  H       -13.9825034050        1.8467091904       -4.1275088960
  N        -9.3263514565        0.9591184680        1.4135342557
  C       -11.2324013147        1.2733855506        2.9733289702
  C       -11.8244657675        1.5535888647       -4.4180535991
  H       -11.6549910702        1.7299077368       -5.4705913959
  C       -12.1728468563        2.3482430802        7.0428855134
  O       -18.6534396194        3.7531626522       -2.7431348633
  C       -12.6960088417        1.3628447571       -2.3373623900
  C        -8.3807872086        1.0780721629       -2.7839698782
  C        -8.4228007057       -2.8706564012       -6.5643261841
  H        -7.7095079914       -3.1042145024       -7.3498434968
  C       -13.6347636305        1.7225017245        2.3172229402
  H       -13.9983665814        1.9875743243        3.2996743918
  C        -9.7952009610       -2.8450479138       -6.8683660237
  H       -10.1175893336       -3.0652171345       -7.8822576551
  C       -14.4134228144       -1.8988518719       -2.0457550344
  C        -9.8647038676        1.1186202924        2.6778974824
  N       -12.1488418832        1.0636922698        0.6651861125
  C        -7.9623749863       -2.6034963787       -5.2688342925
  H        -6.9056999593       -2.6332288211       -5.0232319458
  C        -8.7932379264        1.2318689424        3.6570298320
  H        -8.9326870468        1.3117943233        4.7251626229
  C        -9.4139243325        1.2253273085       -3.7393880066
  C       -10.9711532002       -1.8813291302       -3.3618080747
  C       -10.3451717415       -2.5670452389        5.0763362858
  H        -9.2905236439       -2.5625414652        5.3324153630
  C       -13.6332027068        1.5186003700       -1.2861031851
  C        -5.0691360096       -2.8197380963       -0.6229056703
  H        -4.8508835210       -2.8599772460       -1.6853635361
  C        -8.1302390920        2.3319044991       -7.7050256329
  C       -15.4018655316       -2.0422328474       -3.0160743954
  H       -15.1529802794       -1.9971437744       -4.0715069081
  C        -7.2970855187        1.0292434730       -0.8618819707
  C        -6.2988939043        1.1973620448       -1.9065548533
  H        -5.2366097287        1.3079539578       -1.7453335827
  C        -8.3217988836        2.8034403330       -5.3434482231
  H        -8.1367422432        3.4649646178       -4.5017966918
  C       -10.7481911787       -2.5360283254       -5.8887381677
  H       -11.8100670940       -2.5123887940       -6.1123159970
  C       -12.2027460668       -1.9090784055        2.0224828802
  C       -12.6909567520       -2.9005427714        5.6796295914
  H       -13.4268421127       -3.1547904436        6.4376148482
  C        -6.9656738051        1.2070417946       -3.0927928255
  H        -6.5504770878        1.3111119454       -4.0843539657
  C       -12.2803499822        1.2884277485        2.0177509872
  C        -6.6364605884       -2.4054377326        1.2051849475
  C       -10.7914041797        1.2308962086       -3.4498685090
  C        -9.2381638853        0.7636094752       -6.2316232205
  H        -9.7556677934       -0.1772543234       -6.0888187028
  C       -13.1115545375       -2.6061475629        4.3765276567
  H       -14.1602077118       -2.6274456739        4.0966883301
  C       -10.0408915209       -1.9545686777        2.5436980819
  C        -8.0547215317       -2.0323601869        1.2986272345
  C        -7.9627860230        1.0731813627        1.5616217324
  C       -12.3979188293        0.8196813258        5.1787500894
  H       -12.7921792180       -0.1024432809        4.7688412934
  C       -10.2840688393       -2.2416018700       -4.6078148080
  C        -7.5686791337       -2.0805524116       -0.8726276112
  C        -7.0182639530        3.8206865146       -9.2156940503
  H        -6.7913926500        3.8376108630      -10.2819084262
  H        -6.0857438463        3.8389468241       -8.6380424517
  H        -7.6319690801        4.6910266698       -8.9532535226
  C       -12.6886499215        1.1640408310        6.4937262119
  H       -13.3085110813        0.5236298079        7.1134994896
  C        -5.2965780413        2.8200643318        1.1134460777
  H        -6.1058169445        3.5329685059        1.2441659324
  C       -11.0786157742        2.8180916745        4.9395484433
  H       -10.4596715095        3.4704522491        4.3303379386
  C        -5.6083147586        1.4771867180        0.8401247426
  C       -14.3009479324        1.7955148220        1.1312103936
  H       -15.3135252647        2.1302654071        0.9581643423
  C        -5.6753556576       -2.7149741097        2.1651770821
  H        -5.9161886788       -2.6805488164        3.2228594698
  C        -7.6199906647        1.2202792659        2.9642169675
  H        -6.6136318915        1.2981522938        3.3524105799
  C       -12.9571339942       -1.7251741709       -2.1286197411
  C        -8.9106990483       -2.2873453873       -4.2993467288
  C       -11.3665336224        3.1826540553        6.2575420852
  H       -10.9658713825        4.1097346332        6.6517561459
  C        -4.3949864159       -3.0610225377        1.7143532342
  H        -3.6158907055       -3.2904274204        2.4360789148
  C        -8.8115473804        1.1215417932       -7.5060271842
  H        -8.9889621090        0.4703906518       -8.3562863024
  C        -8.8072649716       -1.9945188805       -2.8635758887
  C       -11.3288305679       -2.8710437654        6.0261232690
  H       -11.0361539153       -3.0981628284        7.0475563923
  C       -16.0256032069       -2.1732355946       -0.2332094341
  H       -16.2518121646       -2.2287994557        0.8268766853
  C        -4.5643425053        0.5537540587        0.6944143938
  H        -4.7962090399       -0.4865697225        0.5054486691
  C        -4.0972000184       -3.1175946821        0.3408777848
  H        -3.0948886198       -3.3944877850        0.0256288042
  C        -7.0192873602        1.1105199210        0.5150853197
  C       -14.7214510845       -1.9534906776       -0.6727841221
  C       -16.7175001151       -2.2372813766       -2.5773460508
  H       -17.5164864145       -2.3400327100       -3.3065021524
  C       -12.0094808964        3.8175974687        8.9253802979
  H       -12.3812924585        4.6923245048        8.3778758593
  H       -10.9127848422        3.8271124806        8.9367962647
  H       -12.3880542374        3.8337721953        9.9475856391
  C       -17.0239992008       -2.3092590398       -1.2068425190
  H       -18.0540784327       -2.4702508685       -0.9006384620
  C       -17.4005178409        1.8329966879       -1.8592845697
  H       -18.2866848119        1.2224914581       -1.7269075696
  C        -3.9758013299        3.2578441842        1.1238329935
  H        -3.7449439919        4.3088438657        1.2662899319
  C        -3.2421684815        0.9754892665        0.7106505616
  H        -2.4373232634        0.2665183274        0.5453723228
  C       -15.0826173189        3.3504050634       -2.1944534676
  H       -14.1816239264        3.9449523886       -2.3146017272
  C       -13.3639660400        1.4033134839        0.0918163273
  C        -2.9300850793        2.3464373411        0.8660604860
  C       -17.4819616534        3.1327288328       -2.3747268496
  C       -16.1511266163        1.3052964501       -1.5111769292
  H       -16.0954154752        0.2991318155       -1.1124782950
  C       -19.8616396356        2.9902179820       -2.6185211824
  H       -19.8153325581        2.0825141726       -3.2330595668
  H       -20.6575636283        3.6422486380       -2.9790771949
  H       -20.0469698417        2.7197276747       -1.5714020794
  C       -16.3134959638        3.8931216565       -2.5395661106
  H       -16.3929692432        4.9020753859       -2.9325366023
  C        -1.5970069597        2.7502263264        0.6355793970
  Y        10.3152080533       -1.3352866811        0.0658320126
  N         7.2582867064       -2.8396235524        1.7830817389
  O        12.7468410132        1.6158712842       -8.5764949377
  O         8.0412178127        1.6712453779        8.7392526366
  N        11.8864003949       -3.2348122046        2.9276020799
  N        12.0815848446       -2.9793639015        0.5107034210
  N        12.2378451201       -0.2631542184       -0.9567318450
  C         9.2538266567        0.5358807319        4.8829986326
  N        12.9934108956       -3.3471486771       -1.7228525457
  C         7.1931325095       -2.7133966679        0.4583905518
  N         8.2314774659       -2.5759697449       -0.4348747513
  N         8.3778155365       -2.8417510264       -2.8512256869
  N         9.6912683099       -2.7678606551        1.9707324208
  N         9.4232314983        0.0344174399       -1.7139905948
  C        12.7236905959        2.1568977274       -6.1819489895
  H        13.1769910388        3.1307266872       -6.3288358987
  N        10.6236566693       -2.8039239735       -1.8969082047
  C         9.8103477777       -3.3507298581        4.2244972226
  C        11.7763771341        0.5061558538       -4.6498783494
  C        14.2690530135       -3.7522757826        0.3250713804
  C         5.8565644461        1.1960278047       -1.0471669900
  C         8.4493085399       -3.2874338520        3.8701145849
  C         7.8165389942        0.7943484678       -3.2062463820
  H         6.8563799889        1.1403993914       -3.5641618367
  N        11.4753635688       -0.1969714799        1.8871449059
  C         9.5937076991        0.1751775495        3.4739197175
  C         8.9786838685        0.6595322135       -3.9046850437
  H         9.1589329884        0.8792816856       -4.9474553709
  C         8.4959289070        1.3464176768        7.4817069421
  C         8.1081312447        0.4319565358       -1.8300490505
  C        12.4005293753       -0.0660119593       -2.3126119523
  C        12.2264566074       -4.0769080052       -6.0876926574
  H        12.9311000339       -4.3587524044       -6.8652166859
  C         7.1978644550        0.6892290698        2.8393258894
  H         6.8322000219        0.9234701589        3.8283402346
  C        10.8602972821       -3.9776301154       -6.4048959801
  H        10.5351726133       -4.1883944942       -7.4199348992
  C         6.2541656911       -2.8554062324       -1.6355821710
  C        10.9524273265       -0.0382423039        3.1584072996
  N         8.6737526856        0.0530691119        1.1659332725
  C        12.6898262995       -3.8260009961       -4.7895992849
  H        13.7406518686       -3.9134926790       -4.5326492313
  C        12.0277475313       -0.0293089079        4.1354183296
  H        11.8922861979        0.0294927176        5.2057384571
  C        11.3682436331        0.1353301455       -3.2582125359
  C         9.7066446607       -2.9412552811       -2.9134153343
  C        10.2020693893       -3.6662920664        5.5233639062
  H        11.2527439993       -3.7126683278        5.7911124317
  C         7.2022989663        0.6007817601       -0.7677495783
  C        15.5110128080       -4.2071113998       -0.1141381034
  H        15.7327558875       -4.2740393770       -1.1746083480
  C        12.4644306372        1.3074721936       -7.2655956245
  C         5.2756553334       -3.0011034114       -2.6168761211
  H         5.5404354093       -3.0035032967       -3.6694975611
  C        13.5016257543       -0.1932366202       -0.3974592577
  C        14.4921593008       -0.0178542957       -1.4477108975
  H        15.5570782671        0.0731141469       -1.2896548109
  C        12.3786957380        1.7481618015       -4.8899715506
  H        12.5657405851        2.4164865943       -4.0540712572
  O        19.2146172436        0.7505400534        2.4500016026
  C         9.9170491327       -3.6112516674       -5.4359365294
  H         8.8598257388       -3.5326555224       -5.6692320021
  C         8.4121122184       -2.9170785170        2.4508478671
  C         7.8362401041       -3.8799733504        6.1023030997
  H         7.0809824468       -4.0898777725        6.8546585409
  C        13.8156470001        0.0404750686       -2.6285105446
  H        14.2208460178        0.1712527695       -3.6215814276
  C         8.5463033885        0.2435504974        2.5270596237
  C        13.9595089689       -3.6791572999        1.6970630655
  C         9.9919547153        0.2099475428       -2.9609042373
  C        11.5296069313       -0.3319247135       -5.7495180868
  H        11.0659185574       -1.2975493860       -5.5894906476
  C         7.4446646092       -3.5729048820        4.7930167945
  H         6.3992584742       -3.5425527941        4.5019970274
  C        10.5635593760       -3.0696057081        2.9940058432
  C        12.5612652445       -3.2349493884        1.7751935367
  C        12.8473345469       -0.1873500277        2.0311402463
  C         8.3456358140       -0.2210903852        5.6441445143
  H         7.9262948566       -1.1260585103        5.2220359172
  C        10.3861520591       -3.3353135721       -4.1528917575
  C        13.0664274607       -3.3108201334       -0.3908068798
  C        13.3104427126        2.9108796096       -8.8317309424
  H        13.4326992420        2.9681058073       -9.9136907786
  H        14.2853314700        3.0244796690       -8.3416747130
  H        12.6322270691        3.7033070968       -8.4920617865
  C         7.9757909713        0.1674732255        6.9264499505
  H         7.2785167847       -0.4249907830        7.5107297325
  C        15.5724166513        1.2670558366        2.0057012008
  H        14.8029313943        2.0093178639        2.1983081536
  C         9.7812958594        1.6987075626        5.4624680548
  H        10.4713241234        2.3094067352        4.8871727633
  C        15.2185049842        0.0644668358        1.3781945345
  C         6.5319362855        0.8001313137        1.6577912770
  H         5.5165119132        1.1344708271        1.5012387085
  C        14.8943646000       -4.0309431130        2.6676959458
  H        14.6481304628       -3.9680419893        3.7229439874
  C        13.1964410128       -0.1190496089        3.4413981399
  H        14.2020437150       -0.1473939790        3.8349954836
  C         7.7151485816       -2.7156360630       -1.7009199631
  C        11.7515991548       -3.4523149867       -3.8307282870
  C         9.4145118174        2.1097857350        6.7482693242
  H         9.8321541223        3.0254557699        7.1516034260
  C        16.1541804338       -4.4595261847        2.2303405229
  H        16.9129816621       -4.7275995497        2.9603015655
  C        11.8702999121        0.0564441755       -7.0414302387
  H        11.6786870093       -0.5963338564       -7.8874441818
  C        11.8567025757       -3.1564808082       -2.3950379535
  C         9.1943049338       -3.9157690679        6.4637184949
  H         9.4640522448       -4.1476352060        7.4902280044
  C         4.6043351819       -2.9970583191        0.1590538474
  H         4.3592377656       -2.9957985120        1.2163628430
  C        16.2350389594       -0.8723740910        1.1276080420
  H        15.9857535117       -1.8120314903        0.6498327967
  C        16.4555293259       -4.5552284990        0.8601960538
  H        17.4393244757       -4.9012240741        0.5551035812
  C        13.7969738347       -0.1688224520        0.9819947466
  C         5.9233181679       -2.8544909545       -0.2669177067
  C         3.9461361082       -3.1257731851       -2.1925716810
  H         3.1536283165       -3.2226873854       -2.9294725319
  C         8.5253766974        2.8972424173        9.3075458204
  H         8.2448965386        3.7553746486        8.6842305083
  H         9.6149021697        2.8696145418        9.4312614820
  H         8.0447758084        2.9760307514       10.2829311746
  C         3.6156968365       -3.1237899261       -0.8255018523
  H         2.5739053800       -3.2202105439       -0.5323558137
  C         3.4522775551        0.9256136644       -1.1470768375
  H         2.5793279994        0.2837277769       -1.2075937351
  C        16.8914746935        1.5382001357        2.3796386727
  H        17.1265993948        2.4846947903        2.8531585330
  C        17.5518552327       -0.6224420618        1.4985914508
  H        18.3318274604       -1.3546379951        1.3135257720
  C         5.6839853449        2.5860940171       -0.9353749207
  H         6.5597943804        3.2201213702       -0.8295266360
  C         7.4711696927        0.4360831961        0.6070023592
  C        17.8883774251        0.5877354853        2.1235186067
  C         3.2747728165        2.3080404590       -0.9068352500
  C         4.7288637241        0.3829834411       -1.2144021034
  H         4.8537653287       -0.6858168410       -1.3273003817
  C         1.9756369409        2.7597482281       -0.5860878060
  C         4.4107142608        3.1439716951       -0.8671887103
  H         4.2830285901        4.2112163546       -0.7157558759
  C        19.5810337192        1.9893975334        3.0746241913
  H        19.3599763190        2.8397773713        2.4179047144
  H        20.6559269084        1.9234042358        3.2460213090
  H        19.0583438386        2.1144081719        4.0311221849
  C        -0.4406567040        2.9091118338        0.2638309369
  C         0.8301564066        2.9139412664       -0.1801035051
     292
 i =        2, E =     -1391.5964437213
  Y       -10.4170303625       -0.2495387440       -0.3957122860
  N       -13.3643262021       -1.8941879467        1.3640058024
  O        -7.7395710828        2.5997614125       -8.9954484692
  O       -12.5140307346        2.6038870813        8.3494655144
  N        -8.7130381482       -2.0555669853        2.4613818690
  N        -8.5589640917       -1.7968800014        0.0417459073
  N        -8.5526649986        0.9076781636       -1.4285808738
  C       -11.5767763826        1.6330794951        4.3797223965
  N        -7.6546961526       -2.1205054050       -2.2025303550
  C       -13.4491893581       -1.7762848182        0.0391582090
  N       -12.4290705411       -1.5909119181       -0.8659289143
  N       -12.3025660474       -1.8276106256       -3.2866668787
  N       -10.9384975285       -1.6976979836        1.5293972556
  N       -11.3579580693        1.0724669148       -2.1953260628
  C        -7.8906218425        3.1817462426       -6.6173411716
  H        -7.3798464967        4.1292056376       -6.7456884015
  N       -10.0505633811       -1.7035327055       -2.3542333727
  C       -10.7662894366       -2.2664000952        3.7831014509
  C        -8.9908262572        1.5910637942       -5.1241040982
  C        -6.3344760769       -2.4497381018       -0.1702016257
  C       -14.9777892227        2.0464650198       -1.6722046551
  C       -12.1326055962       -2.2703525995        3.4431746923
  C       -13.0015836824        1.6210917462       -3.7357424440
  H       -13.9827049586        1.8466743581       -4.1272381090
  N        -9.3264817376        0.9591058878        1.4134752470
  C       -11.2325905043        1.2730181347        2.9734403770
  C       -11.8245937038        1.5538415522       -4.4179327603
  H       -11.6554683420        1.7296912494       -5.4706114129
  C       -12.1732407175        2.3482248388        7.0424353996
  O       -18.6536188845        3.7538671463       -2.7432539346
  C       -12.6960918949        1.3632772199       -2.3371665037
  C        -8.3807820015        1.0775408083       -2.7840249027
  C        -8.4229455570       -2.8704868478       -6.5644016201
  H        -7.7096029558       -3.1042285876       -7.3498342171
  C       -13.6349799412        1.7223601052        2.3174127275
  H       -13.9986693009        1.9878063679        3.2997457461
  C        -9.7953687693       -2.8449105537       -6.8684255716
  H       -10.1178140882       -3.0650320965       -7.8822937648
  C       -14.4135285854       -1.8990882265       -2.0456601399
  C        -9.8648537822        1.1191057839        2.6777868194
  N       -12.1490752602        1.0633677167        0.6653263524
  C        -7.9625100022       -2.6033795852       -5.2688978659
  H        -6.9058356161       -2.6332668308       -5.0232654709
  C        -8.7934676634        1.2317169647        3.6570345949
  H        -8.9329646803        1.3118661722        4.7251431400
  C        -9.4139056686        1.2256441325       -3.7393050423
  C       -10.9713076296       -1.8804705424       -3.3620687208
  C       -10.3451505098       -2.5669616070        5.0763780512
  H        -9.2905331708       -2.5625986863        5.3325381143
  C       -13.6334645682        1.5184669309       -1.2859549576
  C        -5.0691379539       -2.8196169692       -0.6229235133
  H        -4.8511308280       -2.8600542456       -1.6854108062
  C        -8.1304841412        2.3320225015       -7.7050954742
  C       -15.4020547445       -2.0420817349       -3.0159970977
  H       -15.1532223736       -1.9972820298       -4.0714741607
  C        -7.2970703370        1.0289333277       -0.8619601960
  C        -6.2988901331        1.1973714351       -1.9066520537
  H        -5.2365786674        1.3080074070       -1.7456060116
  C        -8.3214934263        2.8032012662       -5.3434292635
  H        -8.1365829062        3.4648299194       -4.5018360257
  C       -10.7483197824       -2.5358860348       -5.8887839367
  H       -11.8102136833       -2.5124081689       -6.1122175567
  C       -12.2024297886       -1.9119998477        2.0217979229
  C       -12.6909388678       -2.9003028806        5.6796887703
  H       -13.4268765101       -3.1547781661        6.4375554235
  C        -6.9657652332        1.2072972127       -3.0928343185
  H        -6.5505936863        1.3110326313       -4.0844459364
  C       -12.2803996733        1.2888712737        2.0177346229
  C        -6.6363094418       -2.4050144231        1.2051996037
  C       -10.7914488543        1.2305308707       -3.4499950722
  C        -9.2378882338        0.7633540437       -6.2316636281
  H        -9.7556225246       -0.1774101593       -6.0890885274
  C       -13.1113883569       -2.6065742121        4.3764196414
  H       -14.1600550000       -2.6274642059        4.0966762922
  C       -10.0410039224       -1.9571076847        2.5430340768
  C        -8.0548236626       -2.0331480936        1.2986796516
  C        -7.9628839298        1.0728334782        1.5616262477
  C       -12.3977978493        0.8195463253        5.1788862374
  H       -12.7922908289       -0.1024537201        4.7689788185
  C       -10.2842565873       -2.2418611947       -4.6077694771
  C        -7.5682049393       -2.0787416233       -0.8726538377
  C        -7.0186075885        3.8211099960       -9.2158865628
  H        -6.7913578365        3.8376229700      -10.2820714106
  H        -6.0861810051        3.8385270858       -8.6380490210
  H        -7.6321521507        4.6914882501       -8.9531034137
  C       -12.6892237955        1.1639239553        6.4936862551
  H       -13.3087492678        0.5234158933        7.1137360930
  C        -5.2966539147        2.8200920490        1.1133133828
  H        -6.1059048314        3.5329314011        1.2442930921
  C       -11.0785302447        2.8178962841        4.9398953236
  H       -10.4597206693        3.4703863843        4.3306613729
  C        -5.6084161333        1.4771265138        0.8404295639
  C       -14.3011695346        1.7952906186        1.1314031719
  H       -15.3136070142        2.1304178712        0.9582233957
  C        -5.6753442912       -2.7149820501        2.1651909898
  H        -5.9163436971       -2.6804552197        3.2228183909
  C        -7.6202305813        1.2206904767        2.9641936296
  H        -6.6138627359        1.2981599905        3.3524248704
  C       -12.9572508452       -1.7254862437       -2.1284243819
  C        -8.9109226849       -2.2879708059       -4.2992013292
  C       -11.3667867419        3.1830471479        6.2576603523
  H       -10.9659359026        4.1100384033        6.6518682435
  C        -4.3949514776       -3.0609030499        1.7143301070
  H        -3.6159207339       -3.2904672343        2.4360868732
  C        -8.8117594742        1.1216905566       -7.5061157903
  H        -8.9891123862        0.4706158417       -8.3564592533
  C        -8.8070473651       -1.9924500880       -2.8639816623
  C       -11.3287706961       -2.8712780694        6.0260641417
  H       -11.0360309823       -3.0980058717        7.0475584660
  C       -16.0256558890       -2.1734499657       -0.2331322706
  H       -16.2518142736       -2.2286435952        0.8269922583
  C        -4.5643803160        0.5538319771        0.6942085855
  H        -4.7963108396       -0.4864898262        0.5053335858
  C        -4.0972034366       -3.1176520030        0.3408323242
  H        -3.0948681859       -3.3945640437        0.0256266150
  C        -7.0194070321        1.1107958145        0.5150293843
  C       -14.7217558842       -1.9525521019       -0.6727000508
  C       -16.7176240175       -2.2374433411       -2.5772599725
  H       -17.5166737132       -2.3401420778       -3.3063788637
  C       -12.0100364216        3.8181335358        8.9258108382
  H       -12.3812628772        4.6928380816        8.3778220695
  H       -10.9130745193        3.8263233237        8.9364797725
  H       -12.3884104752        3.8339845066        9.9480822698
  C       -17.0241438090       -2.3089190545       -1.2067291477
  H       -18.0541551959       -2.4701869021       -0.9005116169
  C       -17.4003830024        1.8329791491       -1.8596047850
  H       -18.2865918651        1.2226126158       -1.7269910948
  C        -3.9758549032        3.2578110520        1.1240197856
  H        -3.7451157755        4.3088298622        1.2664157221
  C        -3.2421821294        0.9754936177        0.7108143586
  H        -2.4374358954        0.2664583422        0.5454850879
  C       -15.0827793724        3.3507393044       -2.1937255996
  H       -14.1815718174        3.9448267114       -2.3147525948
  C       -13.3639722585        1.4036923351        0.0919063056
  C        -2.9301245166        2.3464995882        0.8658823833
  C       -17.4825837046        3.1329643060       -2.3742650390
  C       -16.1512431019        1.3054358513       -1.5103774062
  H       -16.0954976146        0.2988961518       -1.1126132763
  C       -19.8613755929        2.9901787140       -2.6180979060
  H       -19.8156317438        2.0825422082       -3.2329280703
  H       -20.6574794292        3.6421397595       -2.9785611834
  H       -20.0474801411        2.7196418757       -1.5712620099
  C       -16.3137583915        3.8926967843       -2.5397597809
  H       -16.3932743262        4.9017473035       -2.9325321377
  C        -1.5969783327        2.7502364390        0.6355775934
  Y        10.3152174784       -1.3355822330        0.0658957334
  N         7.2582957643       -2.8383866589        1.7833135216
  O        12.7465372518        1.6161292568       -8.5763651175
  O         8.0405252182        1.6713163686        8.7392772613
  N        11.8867002252       -3.2330610014        2.9278680027
  N        12.0821837478       -2.9777737508        0.5107401503
  N        12.2377181370       -0.2629608775       -0.9566920338
  C         9.2535763343        0.5360175219        4.8830564827
  N        12.9937954407       -3.3464343746       -1.7228934428
  C         7.1934032171       -2.7148851383        0.4583146974
  N         8.2315613423       -2.5750907489       -0.4347691588
  N         8.3778594896       -2.8417611293       -2.8510720730
  N         9.6913274629       -2.7660262744        1.9711125988
  N         9.4233940789        0.0344130251       -1.7139881082
  C        12.7239084484        2.1568544321       -6.1818722917
  H        13.1771780174        3.1307125096       -6.3287577174
  N        10.6238325103       -2.8038308012       -1.8969299337
  C         9.8104111785       -3.3498229319        4.2247472809
  C        11.7764489610        0.5062154936       -4.6498743090
  C        14.2692279203       -3.7519088395        0.3250706687
  C         5.8566719772        1.1960784605       -1.0470263808
  C         8.4493939802       -3.2869907069        3.8702117114
  C         7.8167282811        0.7945124337       -3.2062058343